REMARK SMILES CN(C)C/C=C/C(=O)Nc1cc2c(Nc3ccc(F)c(Cl)c3)ncnc2cc1O[C@H]1CCOC1
REMARK SMILES IDX 8 1 9 2 7 3 10 5 13 6 23 7 12 8 24 9 26 10 11 11 25 12 27 13
REMARK SMILES IDX 28 14 14 15 15 17 20 18 22 19 18 20 17 21 16 22 21 23 19 24
REMARK SMILES IDX 29 25 30 26 31 27 34 28 32 29 33 30 6 31 5 32 4 33 2 34 1 35
REMARK SMILES IDX 3 36
REMARK H PARENT 9 4 14 16
ROOT
ATOM      1  O   UNL     1       0.194   0.713   1.903  1.00  0.00    -0.270 OA
ATOM      2  N   UNL     1       1.005  -0.283  -0.037  1.00  0.00    -0.319 N 
ATOM      3  C   UNL     1       1.010   0.021   1.305  1.00  0.00     0.248 C 
ATOM      4  H   UNL     1       1.780  -0.827  -0.407  1.00  0.00     0.170 HD
ENDROOT
BRANCH   2   5
ATOM      5  C   UNL     1       0.055   0.102  -1.007  1.00  0.00     0.085 A 
ATOM      6  C   UNL     1      -3.213   1.900  -1.564  1.00  0.00     0.141 A 
ATOM      7  N   UNL     1      -4.028   2.206  -2.590  1.00  0.00    -0.219 NA
ATOM      8  C   UNL     1      -2.016   1.178  -1.756  1.00  0.00     0.045 A 
ATOM      9  C   UNL     1      -3.646   1.811  -3.807  1.00  0.00     0.224 A 
ATOM     10  C   UNL     1      -1.733   0.821  -3.082  1.00  0.00     0.080 A 
ATOM     11  C   UNL     1      -1.113   0.804  -0.723  1.00  0.00     0.044 A 
ATOM     12  N   UNL     1      -2.533   1.134  -4.104  1.00  0.00    -0.236 NA
ATOM     13  C   UNL     1      -0.574   0.110  -3.354  1.00  0.00     0.077 A 
ATOM     14  C   UNL     1       0.300  -0.268  -2.334  1.00  0.00     0.145 A 
BRANCH   6  15
ATOM     15  N   UNL     1      -3.567   2.307  -0.249  1.00  0.00    -0.340 N 
ATOM     16  H   UNL     1      -2.769   2.756   0.191  1.00  0.00     0.168 HD
BRANCH  15  17
ATOM     17  C   UNL     1      -4.792   2.826   0.223  1.00  0.00     0.041 A 
ATOM     18  C   UNL     1      -7.218   3.014   0.173  1.00  0.00     0.078 A 
ATOM     19  C   UNL     1      -6.027   2.524  -0.368  1.00  0.00     0.049 A 
ATOM     20  C   UNL     1      -7.190   3.792   1.326  1.00  0.00     0.141 A 
ATOM     21  C   UNL     1      -5.982   4.075   1.951  1.00  0.00     0.043 A 
ATOM     22  C   UNL     1      -4.792   3.584   1.408  1.00  0.00     0.029 A 
ATOM     23  Cl  UNL     1      -8.715   2.636  -0.591  1.00  0.00    -0.081 Cl
ATOM     24  F   UNL     1      -8.322   4.270   1.862  1.00  0.00    -0.205 F 
ENDBRANCH  15  17
ENDBRANCH   6  15
BRANCH  14  25
ATOM     25  O   UNL     1       1.469  -0.931  -2.616  1.00  0.00    -0.486 OA
BRANCH  25  26
ATOM     26  C   UNL     1       1.261  -2.257  -3.136  1.00  0.00     0.201 C 
ATOM     27  C   UNL     1       2.601  -2.749  -3.640  1.00  0.00     0.076 C 
ATOM     28  C   UNL     1       0.996  -3.261  -2.020  1.00  0.00     0.205 C 
ATOM     29  C   UNL     1       3.297  -3.157  -2.356  1.00  0.00     0.164 C 
ATOM     30  O   UNL     1       2.275  -3.559  -1.430  1.00  0.00    -0.377 OA
ENDBRANCH  25  26
ENDBRANCH  14  25
ENDBRANCH   2   5
BRANCH   3  31
ATOM     31  C   UNL     1       2.176  -0.585   2.005  1.00  0.00     0.068 C 
ATOM     32  C   UNL     1       2.371  -0.378   3.319  1.00  0.00    -0.006 C 
BRANCH  32  33
ATOM     33  C   UNL     1       3.494  -0.930   4.153  1.00  0.00     0.111 C 
BRANCH  33  34
ATOM     34  N   UNL     1       4.624  -1.476   3.387  1.00  0.00    -0.306 NA
ATOM     35  C   UNL     1       5.401  -2.398   4.219  1.00  0.00     0.105 C 
ATOM     36  C   UNL     1       5.500  -0.403   2.902  1.00  0.00     0.105 C 
ENDBRANCH  33  34
ENDBRANCH  32  33
ENDBRANCH   3  31
TORSDOF 8
