REMARK SMILES COc1cc2ncnc(Nc3ccc(F)c(Cl)c3)c2cc1NC(=O)/C=C/CN1CCCCC1
REMARK SMILES IDX 6 1 8 2 21 3 19 4 20 5 3 6 5 7 9 8 4 9 7 10 10 11 11 13
REMARK SMILES IDX 16 14 18 15 14 16 13 17 12 18 17 19 15 20 22 21 23 22 24 23
REMARK SMILES IDX 25 25 26 26 27 27 28 28 29 29 33 30 30 31 32 32 31 33 2 34
REMARK SMILES IDX 1 35
REMARK H PARENT 10 12 22 24
ROOT
ATOM      1  N   UNL     1       5.892  -2.220   1.817  1.00  0.00    -0.236 NA
ATOM      2  N   UNL     1       6.342  -1.634  -0.449  1.00  0.00    -0.219 NA
ATOM      3  C   UNL     1       1.798  -1.694   1.293  1.00  0.00     0.084 A 
ATOM      4  C   UNL     1       4.068  -1.623   0.373  1.00  0.00     0.045 A 
ATOM      5  C   UNL     1       2.664  -1.481   0.222  1.00  0.00     0.044 A 
ATOM      6  C   UNL     1       2.333  -2.076   2.535  1.00  0.00     0.144 A 
ATOM      7  C   UNL     1       4.586  -2.026   1.609  1.00  0.00     0.080 A 
ATOM      8  C   UNL     1       5.029  -1.411  -0.634  1.00  0.00     0.141 A 
ATOM      9  C   UNL     1       3.714  -2.240   2.670  1.00  0.00     0.077 A 
ATOM     10  C   UNL     1       6.707  -2.025   0.774  1.00  0.00     0.224 A 
ENDROOT
BRANCH   8  11
ATOM     11  N   UNL     1       4.691  -0.963  -1.930  1.00  0.00    -0.340 N 
ATOM     12  H   UNL     1       5.579  -0.978  -2.435  1.00  0.00     0.168 HD
BRANCH  11  13
ATOM     13  C   UNL     1       4.025   0.248  -2.250  1.00  0.00     0.041 A 
ATOM     14  C   UNL     1       3.329   2.522  -1.762  1.00  0.00     0.078 A 
ATOM     15  C   UNL     1       3.968   1.342  -1.375  1.00  0.00     0.049 A 
ATOM     16  C   UNL     1       2.763   2.624  -3.030  1.00  0.00     0.141 A 
ATOM     17  C   UNL     1       2.836   1.559  -3.921  1.00  0.00     0.043 A 
ATOM     18  C   UNL     1       3.474   0.379  -3.534  1.00  0.00     0.029 A 
ATOM     19  Cl  UNL     1       3.263   3.846  -0.662  1.00  0.00    -0.081 Cl
ATOM     20  F   UNL     1       2.153   3.752  -3.421  1.00  0.00    -0.205 F 
ENDBRANCH  11  13
ENDBRANCH   8  11
BRANCH   3  21
ATOM     21  N   UNL     1       0.395  -1.547   1.214  1.00  0.00    -0.319 N 
ATOM     22  C   UNL     1      -0.359  -1.169   0.125  1.00  0.00     0.248 C 
ATOM     23  O   UNL     1       0.050  -0.897  -0.995  1.00  0.00    -0.270 OA
ATOM     24  H   UNL     1      -0.076  -1.739   2.091  1.00  0.00     0.170 HD
BRANCH  22  25
ATOM     25  C   UNL     1      -1.813  -1.117   0.454  1.00  0.00     0.068 C 
ATOM     26  C   UNL     1      -2.708  -0.733  -0.470  1.00  0.00    -0.006 C 
BRANCH  26  27
ATOM     27  C   UNL     1      -4.186  -0.655  -0.230  1.00  0.00     0.112 C 
BRANCH  27  28
ATOM     28  N   UNL     1      -4.728   0.671  -0.557  1.00  0.00    -0.300 NA
ATOM     29  C   UNL     1      -4.290   1.693   0.409  1.00  0.00     0.085 C 
ATOM     30  C   UNL     1      -6.197   0.614  -0.626  1.00  0.00     0.085 C 
ATOM     31  C   UNL     1      -4.824   3.077   0.034  1.00  0.00     0.016 C 
ATOM     32  C   UNL     1      -6.790   1.962  -1.034  1.00  0.00     0.016 C 
ATOM     33  C   UNL     1      -6.342   3.073  -0.093  1.00  0.00     0.003 C 
ENDBRANCH  27  28
ENDBRANCH  26  27
ENDBRANCH  22  25
ENDBRANCH   3  21
BRANCH   6  34
ATOM     34  O   UNL     1       1.413  -2.266   3.541  1.00  0.00    -0.494 OA
ATOM     35  C   UNL     1       1.919  -2.635   4.819  1.00  0.00     0.278 C 
ENDBRANCH   6  34
TORSDOF 7
