REMARK SMILES C#Cc1cccc(Nc2ncnc3cc(OCCOC)c(OCCOC)cc23)c1
REMARK SMILES IDX 12 1 10 2 28 3 13 4 21 5 15 6 27 7 9 8 14 9 11 10 22 11
REMARK SMILES IDX 23 12 24 13 25 14 26 15 16 16 17 17 18 18 19 19 20 20 8 21
REMARK SMILES IDX 7 23 29 24 6 25 3 26 5 27 4 28 2 29 1 30
REMARK H PARENT 8 22
ROOT
ATOM      1  N   UNL     1       0.790  -2.787  -1.879  1.00  0.00    -0.236 NA
ATOM      2  N   UNL     1       2.555  -2.677  -0.283  1.00  0.00    -0.219 NA
ATOM      3  C   UNL     1       0.663  -1.205  -0.080  1.00  0.00     0.047 A 
ATOM      4  C   UNL     1       0.149  -1.810  -1.233  1.00  0.00     0.080 A 
ATOM      5  C   UNL     1      -1.284   0.276  -0.001  1.00  0.00     0.162 A 
ATOM      6  C   UNL     1      -1.821  -0.365  -1.122  1.00  0.00     0.163 A 
ATOM      7  C   UNL     1      -0.067  -0.156   0.528  1.00  0.00     0.064 A 
ATOM      8  C   UNL     1       1.902  -1.702   0.373  1.00  0.00     0.141 A 
ATOM      9  C   UNL     1      -1.080  -1.387  -1.728  1.00  0.00     0.079 A 
ATOM     10  C   UNL     1       1.968  -3.170  -1.375  1.00  0.00     0.224 A 
ENDROOT
BRANCH   5  11
ATOM     11  O   UNL     1      -1.883   1.288   0.702  1.00  0.00    -0.487 OA
BRANCH  11  12
ATOM     12  C   UNL     1      -2.391   2.357  -0.104  1.00  0.00     0.258 C 
BRANCH  12  13
ATOM     13  C   UNL     1      -2.323   3.648   0.711  1.00  0.00     0.201 C 
BRANCH  13  14
ATOM     14  O   UNL     1      -2.880   4.763   0.014  1.00  0.00    -0.381 OA
ATOM     15  C   UNL     1      -1.979   5.341  -0.921  1.00  0.00     0.195 C 
ENDBRANCH  13  14
ENDBRANCH  12  13
ENDBRANCH  11  12
ENDBRANCH   5  11
BRANCH   6  16
ATOM     16  O   UNL     1      -3.051   0.050  -1.553  1.00  0.00    -0.487 OA
BRANCH  16  17
ATOM     17  C   UNL     1      -3.733  -0.762  -2.516  1.00  0.00     0.258 C 
BRANCH  17  18
ATOM     18  C   UNL     1      -5.155  -0.222  -2.701  1.00  0.00     0.201 C 
BRANCH  18  19
ATOM     19  O   UNL     1      -6.072  -0.712  -1.717  1.00  0.00    -0.381 OA
ATOM     20  C   UNL     1      -5.875  -0.148  -0.426  1.00  0.00     0.195 C 
ENDBRANCH  18  19
ENDBRANCH  17  18
ENDBRANCH  16  17
ENDBRANCH   6  16
BRANCH   8  21
ATOM     21  N   UNL     1       2.463  -1.161   1.563  1.00  0.00    -0.340 N 
ATOM     22  H   UNL     1       1.774  -1.226   2.306  1.00  0.00     0.168 HD
BRANCH  21  23
ATOM     23  C   UNL     1       3.777  -1.309   2.063  1.00  0.00     0.041 A 
ATOM     24  C   UNL     1       4.889  -1.492   1.232  1.00  0.00     0.043 A 
ATOM     25  C   UNL     1       4.002  -1.139   3.439  1.00  0.00     0.026 A 
ATOM     26  C   UNL     1       6.182  -1.565   1.763  1.00  0.00     0.026 A 
ATOM     27  C   UNL     1       5.291  -1.211   3.975  1.00  0.00     0.003 A 
ATOM     28  C   UNL     1       6.381  -1.431   3.136  1.00  0.00     0.017 A 
ATOM     29  C   UNL     1       7.303  -1.767   0.895  1.00  0.00    -0.070 C 
ATOM     30  C   UNL     1       8.242  -1.937   0.167  1.00  0.00     0.010 C 
ENDBRANCH  21  23
ENDBRANCH   8  21
TORSDOF 10
