REMARK SMILES O=C(Cn1c2ccc(Cl)cc2c2nc3ccccc3nc21)NNC(=S)Nc1ccccc1
REMARK SMILES IDX 1 1 22 2 2 3 3 5 4 6 8 7 10 8 7 9 11 10 6 11 5 12 12 13
REMARK SMILES IDX 13 14 21 15 14 16 20 17 19 18 15 19 18 20 16 21 17 22 9 23
REMARK SMILES IDX 23 24 24 25 25 26 26 27 27 30 28 31 32 32 29 33 31 34 30 35
REMARK H PARENT 22 4 23 28 26 29
ROOT
ATOM      1  O   UNL     1      -1.688  -2.433  -0.332  1.00  0.00    -0.271 OA
ATOM      2  N   UNL     1      -1.187  -0.406  -1.290  1.00  0.00    -0.266 N 
ATOM      3  C   UNL     1      -0.943  -1.742  -1.026  1.00  0.00     0.258 C 
ATOM      4  H   UNL     1      -0.421   0.203  -1.598  1.00  0.00     0.191 HD
ENDROOT
BRANCH   3   5
ATOM      5  C   UNL     1       0.305  -2.290  -1.677  1.00  0.00     0.226 C 
BRANCH   5   6
ATOM      6  N   UNL     1       1.493  -1.937  -0.922  1.00  0.00    -0.314 N 
ATOM      7  C   UNL     1       3.981  -3.927   1.712  1.00  0.00     0.041 A 
ATOM      8  C   UNL     1       4.199  -2.610   1.305  1.00  0.00     0.033 A 
ATOM      9  C   UNL     1       2.886  -4.650   1.248  1.00  0.00     0.023 A 
ATOM     10  C   UNL     1       3.293  -2.011   0.406  1.00  0.00     0.029 A 
ATOM     11  C   UNL     1       1.974  -4.079   0.354  1.00  0.00     0.028 A 
ATOM     12  C   UNL     1       2.199  -2.756  -0.061  1.00  0.00     0.053 A 
ATOM     13  C   UNL     1       3.207  -0.721  -0.184  1.00  0.00     0.116 A 
ATOM     14  N   UNL     1       4.003   0.370  -0.053  1.00  0.00    -0.242 NA
ATOM     15  C   UNL     1       2.082  -0.702  -0.991  1.00  0.00     0.160 A 
ATOM     16  C   UNL     1       3.598   1.439  -0.758  1.00  0.00     0.090 A 
ATOM     17  N   UNL     1       1.636   0.351  -1.708  1.00  0.00    -0.226 NA
ATOM     18  C   UNL     1       2.432   1.432  -1.575  1.00  0.00     0.091 A 
ATOM     19  C   UNL     1       4.356   2.601  -0.681  1.00  0.00     0.030 A 
ATOM     20  C   UNL     1       2.093   2.588  -2.267  1.00  0.00     0.031 A 
ATOM     21  C   UNL     1       4.001   3.754  -1.381  1.00  0.00     0.002 A 
ATOM     22  C   UNL     1       2.865   3.748  -2.177  1.00  0.00     0.002 A 
ATOM     23  Cl  UNL     1       5.082  -4.666   2.811  1.00  0.00    -0.084 Cl
ENDBRANCH   5   6
ENDBRANCH   3   5
BRANCH   2  24
ATOM     24  N   UNL     1      -2.218   0.215  -0.561  1.00  0.00    -0.274 N 
ATOM     25  C   UNL     1      -2.747   1.412  -0.971  1.00  0.00     0.189 C 
ATOM     26  S   UNL     1      -2.160   2.332  -2.245  1.00  0.00    -0.039 S 
ATOM     27  N   UNL     1      -3.848   1.877  -0.309  1.00  0.00    -0.331 N 
ATOM     28  H   UNL     1      -2.855  -0.445  -0.113  1.00  0.00     0.190 HD
ATOM     29  H   UNL     1      -4.308   2.635  -0.803  1.00  0.00     0.169 HD
BRANCH  27  30
ATOM     30  C   UNL     1      -4.408   1.538   0.939  1.00  0.00     0.040 A 
ATOM     31  C   UNL     1      -5.704   2.001   1.199  1.00  0.00     0.026 A 
ATOM     32  C   UNL     1      -3.735   0.830   1.938  1.00  0.00     0.026 A 
ATOM     33  C   UNL     1      -6.334   1.722   2.414  1.00  0.00     0.002 A 
ATOM     34  C   UNL     1      -4.365   0.551   3.156  1.00  0.00     0.002 A 
ATOM     35  C   UNL     1      -5.665   0.990   3.391  1.00  0.00     0.000 A 
ENDBRANCH  27  30
ENDBRANCH   2  24
TORSDOF 4
