REMARK SMILES C=CC(=O)Nc1cc(Nc2nccc(-c3cn(C)c4ccccc34)n2)c(OC)cc1N(C)CCN(C)C
REMARK SMILES IDX 30 1 6 2 29 3 8 4 26 5 7 6 27 7 28 8 9 9 10 11 25 12 11 13
REMARK SMILES IDX 14 14 12 15 13 16 15 17 24 18 16 19 19 20 23 21 17 22 20 23
REMARK SMILES IDX 22 24 21 25 18 26 31 27 32 28 33 29 34 30 35 31 36 32 37 33
REMARK SMILES IDX 5 34 3 35 4 36 2 38 1 39
REMARK H PARENT 9 10 5 37
ROOT
ATOM      1  C   UNL     1      -2.659  -0.609   0.795  1.00  0.00     0.064 A 
ATOM      2  C   UNL     1      -1.409  -0.843   0.173  1.00  0.00     0.067 A 
ATOM      3  C   UNL     1      -2.714  -0.424   2.183  1.00  0.00     0.076 A 
ATOM      4  C   UNL     1      -0.285  -0.682   2.323  1.00  0.00     0.086 A 
ATOM      5  C   UNL     1      -1.542  -0.465   2.943  1.00  0.00     0.144 A 
ATOM      6  C   UNL     1      -0.237  -0.870   0.933  1.00  0.00     0.058 A 
ENDROOT
BRANCH   5   7
ATOM      7  O   UNL     1      -1.492  -0.299   4.311  1.00  0.00    -0.494 OA
ATOM      8  C   UNL     1      -2.720  -0.065   4.987  1.00  0.00     0.278 C 
ENDBRANCH   5   7
BRANCH   4   9
ATOM      9  N   UNL     1       0.853  -0.679   3.150  1.00  0.00    -0.321 N 
ATOM     10  H   UNL     1       0.648  -0.620   4.139  1.00  0.00     0.170 HD
BRANCH   9  11
ATOM     11  C   UNL     1       2.223  -0.645   2.937  1.00  0.00     0.227 A 
ATOM     12  N   UNL     1       2.744  -0.569   1.710  1.00  0.00    -0.213 NA
ATOM     13  N   UNL     1       2.974  -0.668   4.052  1.00  0.00    -0.221 NA
ATOM     14  C   UNL     1       4.088  -0.518   1.594  1.00  0.00     0.078 A 
ATOM     15  C   UNL     1       4.309  -0.633   3.898  1.00  0.00     0.117 A 
ATOM     16  C   UNL     1       4.930  -0.560   2.679  1.00  0.00     0.049 A 
BRANCH  14  17
ATOM     17  C   UNL     1       4.606  -0.444   0.235  1.00  0.00     0.026 A 
ATOM     18  C   UNL     1       5.746   0.235  -0.313  1.00  0.00     0.009 A 
ATOM     19  C   UNL     1       3.981  -1.084  -0.817  1.00  0.00     0.096 A 
ATOM     20  C   UNL     1       5.775  -0.040  -1.687  1.00  0.00     0.048 A 
ATOM     21  C   UNL     1       6.749   1.078   0.218  1.00  0.00     0.011 A 
ATOM     22  N   UNL     1       4.681  -0.832  -1.961  1.00  0.00    -0.350 N 
ATOM     23  C   UNL     1       6.775   0.468  -2.533  1.00  0.00     0.027 A 
ATOM     24  C   UNL     1       7.749   1.588  -0.617  1.00  0.00     0.001 A 
ATOM     25  C   UNL     1       7.762   1.282  -1.973  1.00  0.00     0.002 A 
ATOM     26  C   UNL     1       4.302  -1.313  -3.270  1.00  0.00     0.149 C 
ENDBRANCH  14  17
ENDBRANCH   9  11
ENDBRANCH   4   9
BRANCH   1  27
ATOM     27  N   UNL     1      -3.829  -0.575  -0.033  1.00  0.00    -0.372 N 
ATOM     28  C   UNL     1      -4.709  -1.710   0.286  1.00  0.00     0.143 C 
BRANCH  27  29
ATOM     29  C   UNL     1      -4.482   0.757   0.027  1.00  0.00     0.131 C 
BRANCH  29  30
ATOM     30  C   UNL     1      -5.339   1.005  -1.239  1.00  0.00     0.105 C 
BRANCH  30  31
ATOM     31  N   UNL     1      -5.976   2.326  -1.392  1.00  0.00    -0.308 NA
ATOM     32  C   UNL     1      -6.910   2.630  -0.312  1.00  0.00     0.105 C 
ATOM     33  C   UNL     1      -5.000   3.401  -1.559  1.00  0.00     0.105 C 
ENDBRANCH  30  31
ENDBRANCH  29  30
ENDBRANCH  27  29
ENDBRANCH   1  27
BRANCH   2  34
ATOM     34  N   UNL     1      -1.471  -1.028  -1.225  1.00  0.00    -0.321 N 
ATOM     35  C   UNL     1      -0.469  -1.361  -2.100  1.00  0.00     0.247 C 
ATOM     36  O   UNL     1       0.701  -1.602  -1.841  1.00  0.00    -0.270 OA
ATOM     37  H   UNL     1      -2.423  -0.927  -1.568  1.00  0.00     0.170 HD
BRANCH  35  38
ATOM     38  C   UNL     1      -0.973  -1.431  -3.504  1.00  0.00     0.064 C 
ATOM     39  C   UNL     1      -0.169  -1.812  -4.505  1.00  0.00     0.014 C 
ENDBRANCH  35  38
ENDBRANCH   2  34
TORSDOF 10
